 Gaussian 09, Revision D.01,
 Gaussian 09:  ES64L-G09RevD.01 24-Apr-2013

 ----------------------
 # opt=modredundant pm6
 ----------------------

 -------------------
 Title Card Required
 -------------------
 Symbolic Z-matrix:
 Charge = -1 Multiplicity = 1

 SCF Done:  E(RPM6) = -0.190715485173     A.U. after   14 cycles
 SCF Done:  E(RPM6) = -0.192393292263     A.U. after   11 cycles
 SCF Done:  E(RPM6) = -0.192456091366     A.U. after    9 cycles
 SCF Done:  E(RPM6) = -0.192466697670     A.U. after   10 cycles
 SCF Done:  E(RPM6) = -0.192470537392     A.U. after   10 cycles
 Optimization completed.
    -- Stationary point found.
 SCF Done:  E(RPM6) = -0.192570340666     A.U. after   11 cycles
 SCF Done:  E(RPM6) = -0.193086349637     A.U. after   11 cycles
 SCF Done:  E(RPM6) = -0.193092689852     A.U. after   10 cycles
 SCF Done:  E(RPM6) = -0.193093291250     A.U. after    9 cycles
 Optimization completed.
 SCF Done:  E(RPM6) = -0.193283217951     A.U. after   11 cycles
 SCF Done:  E(RPM6) = -0.136411040033     A.U. after    9 cycles
 SCF Done:  E(RPM6) = -0.136411307092     A.U. after    8 cycles
 SCF Done:  E(RPM6) = -0.123286979366     A.U. after   12 cycles
 SCF Done:  E(RPM6) = -0.124345933220     A.U. after   11 cycles
 SCF Done:  E(RPM6) = -0.124346565636     A.U. after    9 cycles
 SCF Done:  E(RPM6) = -0.124347544318     A.U. after    8 cycles
    -- Stationary point found.
 SCF Done:  E(RPM6) = -0.976064186647E-01 A.U. after   12 cycles
 SCF Done:  E(RPM6) = -0.985713694045E-01 A.U. after   11 cycles
 SCF Done:  E(RPM6) = -0.985688963849E-01 A.U. after    9 cycles
 SCF Done:  E(RPM6) = -0.985737883248E-01 A.U. after    9 cycles
 Optimization completed.
    -- Stationary point found.

                         Standard orientation:
 ---------------------------------------------------------------------
 Center     Atomic      Atomic             Coordinates (Angstroms)
 Number     Number       Type             X           Y           Z
 ---------------------------------------------------------------------
      1          6           0       -0.071554    0.002005   -0.004120
      2          1           0        0.456942    0.935872   -0.332634
      3          1           0        0.464250   -0.180395    0.965334
      4          1           0        0.459121   -0.747417   -0.649605
      5         17           0       -1.591544   -0.000765    0.001577
      6          9           0        2.900584   -0.000788    0.001646
 ---------------------------------------------------------------------

 The electronic state is 1-A.
 Alpha  occ. eigenvalues --   -0.92521  -0.90461  -0.72381  -0.43624  -0.40936
 Alpha  occ. eigenvalues --   -0.40909  -0.23516  -0.23503  -0.14833  -0.14828
 Alpha  occ. eigenvalues --   -0.14828
 Alpha virt. eigenvalues --    0.21645   0.34489   0.34497   0.39185   3.38143
 Alpha virt. eigenvalues --    3.38143   3.38808   3.38809   3.39659

 Mulliken charges:
               1
     1  C   -0.615813
     2  H    0.224495
     3  H    0.225630
     4  H    0.224841
     5  Cl  -0.060132
     6  F   -0.999022
 Sum of Mulliken charges =  -1.00000

 Dipole moment (field-independent basis, Debye):
    X=            -11.4018    Y=              0.0014    Z=             -0.0115  Tot=             11.4018
 N-N= 6.458517593552D+01 E-N=-1.066811142835D+02  KE=-1.323963238321D+01
 1\1\GINC-COMP145\Scan\RPM6\ZDO\C1H3Cl1F1(1-)\BALL4935\31-Aug-2018\0\\#
  opt=modredundant pm6\\Title Card Required\\-1,1\C,1.1679006389,-0.879
 3500854,-0.0149344695\H,0.6620645726,-1.8810735718,-0.0108708292\H,0.6
 291034312,-0.3984965953,0.844526902\H,0.6180868929,-0.3981762107,-0.86
 70359442\Cl,2.687369978,-0.8402940981,-0.0248049721\F,-1.8033969637,-0
 .9423780987,0.017599913\\Version=ES64L-G09RevD.01\State=1-A\HF=-0.1924
 705,-0.1930933,-0.193796,-0.1945655,-0.1953407,-0.1959912,-0.1962972,-
 0.1959513,-0.1945946,-0.1918457,-0.187356,-0.1808631,-0.1722466,-0.161
 5989,-0.1493833,-0.1375596,-0.137729,-0.1396426,-0.1364113,-0.1243475,

 Normal termination of Gaussian 09 at Fri Aug 31 20:11:10 2018.
